# vtk DataFile Version 2.0
Cube example
ASCII
DATASET UNSTRUCTURED_GRID
POINTS 8 float 
0.00 0.00 0.00 
1.32 0.00 0.00 
0.00 0.93 0.00 
1.32 0.93 0.00 
0.00 0.00 0.93 
1.32 0.00 0.93 
0.00 0.93 0.93 
1.32 0.93 0.93 
CELLS 1 9 
8 0 1 3 2 4 5 7 6 
CELL_TYPES 1 
12 
POINT_DATA 8 
VECTORS displacements float
0.00 0.00 0.00 
0.32 0.00 0.00 
0.00 -0.07 0.00 
0.32 -0.07 0.00 
0.00 0.00 -0.07 
0.32 0.00 -0.07 
0.00 -0.07 -0.07 
0.32 -0.07 -0.07 
TENSORS sigma float 
30.0 0.0 0.0 
 0.0 0.0 0.0 
 0.0 0.0 0.0 

30.0 0.0 -0.0 
 0.0 0.0 -0.0 
 -0.0 -0.0 0.0 

30.0 -0.0 0.0 
 -0.0 0.0 0.0 
 0.0 0.0 -0.0 

30.0 0.0 0.0 
 0.0 -0.0 -0.0 
 -0.0 -0.0 -0.0 

30.0 0.0 0.0 
 0.0 -0.0 0.0 
 0.0 0.0 -0.0 

30.0 -0.0 0.0 
 -0.0 0.0 0.0 
 0.0 0.0 -0.0 

30.0 0.0 -0.0 
 0.0 -0.0 0.0 
 0.0 0.0 0.0 

30.0 -0.0 -0.0 
 -0.0 0.0 0.0 
 0.0 0.0 0.0 

TENSORS strain float 
0.3 0.0 0.0 
 0.0 -0.1 0.0 
 0.0 0.0 -0.1 

0.3 0.0 -0.0 
 0.0 -0.1 -0.0 
 -0.0 -0.0 -0.1 

0.3 -0.0 0.0 
 -0.0 -0.1 0.0 
 0.0 0.0 -0.1 

0.3 0.0 0.0 
 0.0 -0.1 -0.0 
 -0.0 -0.0 -0.1 

0.3 0.0 0.0 
 0.0 -0.1 0.0 
 0.0 0.0 -0.1 

0.3 -0.0 0.0 
 -0.0 -0.1 0.0 
 0.0 0.0 -0.1 

0.3 0.0 -0.0 
 0.0 -0.1 0.0 
 0.0 0.0 -0.1 

0.3 -0.0 -0.0 
 -0.0 -0.1 0.0 
 0.0 0.0 -0.1 

